+----------------------------+
| Elk version 1.0.17 started |
+----------------------------+

Date (YYYY-MM-DD) : 2014-08-01
Time (hh:mm:ss)   : 20:46:08

All units are atomic (Hartree, Bohr, etc.)

+-------------------------------------------------+
| Ground-state run starting from atomic densities |
+-------------------------------------------------+

Lattice vectors :
   5.130000000       5.130000000       0.000000000    
   5.130000000       0.000000000       5.130000000    
   0.000000000       5.130000000       5.130000000    

Reciprocal lattice vectors :
  0.6123962288      0.6123962288     -0.6123962288    
  0.6123962288     -0.6123962288      0.6123962288    
 -0.6123962288      0.6123962288      0.6123962288    

Unit cell volume      :    270.0113940    
Brillouin zone volume :   0.9186657265    

Species :    1 (Si)
 parameters loaded from : Si.in
 name : silicon
 nuclear charge    :   -14.00000000    
 electronic charge :    14.00000000    
 atomic mass :    51196.73452    
 muffin-tin radius :    2.000000000    
 effective infinity radius :    39.56790000    
 number of radial points in muffin-tin :    397
 number of radial points to effective infinity :    475
 atomic positions (lattice), magnetic fields (Cartesian) :
   1 :   0.00000000  0.00000000  0.00000000    0.00000000  0.00000000  0.00000000
   2 :   0.25000000  0.25000000  0.25000000    0.00000000  0.00000000  0.00000000

Total number of atoms per unit cell :    2

Spin treatment :
 spin-unpolarised

Number of Bravais lattice symmetries :   48
Number of crystal symmetries         :   48

k-point grid :      2     2     2
k-point offset :   0.2500000000      0.5000000000      0.6250000000    
k-point set is reduced with full crystal symmetry group
Total number of k-points :        8

Muffin-tin radius times maximum |G+k| :    7.000000000    
 using average radius
Maximum |G+k| for APW functions       :    3.500000000    
Maximum (1/2)|G+k|^2                  :    6.125000000    
Maximum |G| for potential and density :    12.00000000    
Polynomial order for pseudocharge density :    9
Radial integration step length :    4

G-vector grid sizes       :     30    30    30
Total number of G-vectors :     7799
Total number of points    :    27000
FFT grid density          :       100.00 [1/a.u.^3]

Maximum angular momentum used for
 APW functions                      :    8
 potential and density              :    7

Total nuclear charge    :   -28.00000000    
Total core charge       :    20.00000000    
Total valence charge    :    8.000000000    
Total excess charge     :    0.000000000    
Total electronic charge :    28.00000000    

Effective Wigner radius, r_s :    1.320419158    

Number of empty states         :    6
Total number of valence states :   10

Total number of local-orbitals :    8

Exchange-correlation functional :      3     0     0
 Perdew-Wang/Ceperley-Alder, Phys. Rev. B 45, 13244 (1992)

Smearing type :    0
 Gaussian
Smearing width :   0.1000000000E-01
Effective electronic temperature (K) :    3157.746479    

Mixing type :    2
 Pulay mixing, Chem. Phys. Lett. 73, 393 (1980)

initialization time :       0.07 sec.

Density and potential initialised from atomic data
 done in :       0.43 sec.

Species :    1 (Si)
  n : 1   l : 0   k : 1   energy :   -65.35206985    
  n : 2   l : 0   k : 1   energy :   -5.098023749    
  n : 2   l : 1   k : 1   energy :   -3.528665429    
  n : 2   l : 1   k : 2   energy :   -3.504898682    
  n : 3   l : 0   k : 1   energy :  -0.3996445097    
  n : 3   l : 1   k : 1   energy :  -0.1536681989    
  n : 3   l : 1   k : 2   energy :  -0.1524670825    


+------------------------------+
| Self-consistent loop started |
+------------------------------+

+-------------------------+
| Iteration number :    1 |
+-------------------------+

Energies :
 Fermi                       :     0.102585681774    
 sum of eigenvalues          :     -320.255456153    
 electron kinetic            :      573.902827223    
   core kinetic              :      562.187431522    
   valence kinetic           :      11.7153957007    
 Coulomb                     :     -1119.05500783    
 Coulomb potential           :     -841.458833969    
 nuclear-nuclear             :     -89.1568053812    
 electron-nuclear            :     -1218.33757094    
 Hartree                     :      188.439368483    
 Madelung                    :     -698.325590849    
 xc potential                :     -52.6994494074    
 exchange                    :     -37.7343930394    
 correlation                 :     -2.15475460276    
 total energy                :     -585.041328252    

Density of states at Fermi energy :   0.5213885845E-12
 (states/Hartree/unit cell)
Estimated band gap (eV) :    3.959716798    

Charges :
 core                        :    20.00000000    
 core leakage                :   0.7283285569E-02
 valence                     :    8.000000000    
 interstitial                :    3.990890429    
 muffin-tins
  species :    1 (Si)
   atom    1                 :    12.00455479    
   atom    2                 :    12.00455479    
 total in muffin-tins        :    24.00910957    
 total charge                :    28.00000000    

Time (CPU seconds) :         0.38

iteration time (seconds)                    :         0.48
  radial setup (linen, APW, radint)         :         0.00        0.00        0.11
  total for secular equation                :         0.15
    first-variational                       :         0.14
      setup                                 :         0.06
        setup H (total, MT, IT)             :         0.04        0.04        0.00
        setup O (total, MT, IT)             :         0.02        0.02        0.00
      diagonalization                       :         0.08
    second-variational                      :         0.00
      setup (total, MT, IT)                 :         0.00        0.00        0.00
      diagonalization                       :         0.00
  total for charge and magnetization        :         0.07
    k-point summation (total, MT, IT)       :         0.00        0.00        0.00
    symmetrization                          :         0.00
  potential (total, XC, Ha)                 :         0.06        0.04        0.02
  density matrix setup                      :         0.00

+-------------------------+
| Iteration number :    2 |
+-------------------------+

Energies :
 Fermi                       :     0.230401964165    
 sum of eigenvalues          :     -313.346540180    
 electron kinetic            :      581.398942760    
   core kinetic              :      568.640450526    
   valence kinetic           :      12.7584922346    
 Coulomb                     :     -1115.95420981    
 Coulomb potential           :     -842.505774787    
 nuclear-nuclear             :     -89.1568053812    
 electron-nuclear            :     -1211.08903408    
 Hartree                     :      184.291629647    
 Madelung                    :     -694.701322421    
 xc potential                :     -52.2397081527    
 exchange                    :     -37.4012861745    
 correlation                 :     -2.13999545365    
 total energy                :     -574.096548683    

Density of states at Fermi energy :   0.1339320045E-05
 (states/Hartree/unit cell)
Estimated band gap (eV) :    2.234851058    

Charges :
 core                        :    20.00000000    
 core leakage                :   0.8205510008E-02
 valence                     :    8.000000000    
 interstitial                :    4.632082032    
 muffin-tins
  species :    1 (Si)
   atom    1                 :    11.68395898    
   atom    2                 :    11.68395898    
 total in muffin-tins        :    23.36791797    
 total charge                :    28.00000000    

Wrote STATE.OUT

RMS change in effective potential (target) :   0.4457275734E-01 (  0.1000000000E-05)
Absolute change in total energy (target)   :    10.94477957     (  0.1000000000E-03)

Time (CPU seconds) :         0.64

iteration time (seconds)                    :         0.42
  radial setup (linen, APW, radint)         :         0.00        0.00        0.11
  total for secular equation                :         0.15
    first-variational                       :         0.14
      setup                                 :         0.06
        setup H (total, MT, IT)             :         0.04        0.04        0.00
        setup O (total, MT, IT)             :         0.02        0.02        0.00
      diagonalization                       :         0.08
    second-variational                      :         0.00
      setup (total, MT, IT)                 :         0.00        0.00        0.00
      diagonalization                       :         0.00
  total for charge and magnetization        :         0.07
    k-point summation (total, MT, IT)       :         0.00        0.00        0.00
    symmetrization                          :         0.00
  potential (total, XC, Ha)                 :         0.06        0.04        0.02
  density matrix setup                      :         0.00

+-------------------------+
| Iteration number :    3 |
+-------------------------+

Energies :
 Fermi                       :     0.211377234010    
 sum of eigenvalues          :     -315.348973364    
 electron kinetic            :      579.628721380    
   core kinetic              :      568.125179426    
   valence kinetic           :      11.5035419539    
 Coulomb                     :     -1117.29915034    
 Coulomb potential           :     -842.585415757    
 nuclear-nuclear             :     -89.1568053812    
 electron-nuclear            :     -1213.69927417    
 Hartree                     :      185.556929205    
 Madelung                    :     -696.006442465    
 xc potential                :     -52.3922789865    
 exchange                    :     -37.5126387157    
 correlation                 :     -2.14389335687    
 total energy                :     -577.326961036    

Density of states at Fermi energy :   0.5921560214E-08
 (states/Hartree/unit cell)
Estimated band gap (eV) :    2.569096426    

Charges :
 core                        :    20.00000000    
 core leakage                :   0.7698549212E-02
 valence                     :    8.000000000    
 interstitial                :    4.484777194    
 muffin-tins
  species :    1 (Si)
   atom    1                 :    11.75761140    
   atom    2                 :    11.75761140    
 total in muffin-tins        :    23.51522281    
 total charge                :    28.00000000    

RMS change in effective potential (target) :   0.7020081233E-02 (  0.1000000000E-05)
Absolute change in total energy (target)   :    3.230412354     (  0.1000000000E-03)

Time (CPU seconds) :         0.89

iteration time (seconds)                    :         0.42
  radial setup (linen, APW, radint)         :         0.00        0.00        0.11
  total for secular equation                :         0.15
    first-variational                       :         0.14
      setup                                 :         0.06
        setup H (total, MT, IT)             :         0.04        0.04        0.00
        setup O (total, MT, IT)             :         0.02        0.02        0.00
      diagonalization                       :         0.08
    second-variational                      :         0.00
      setup (total, MT, IT)                 :         0.00        0.00        0.00
      diagonalization                       :         0.00
  total for charge and magnetization        :         0.07
    k-point summation (total, MT, IT)       :         0.00        0.00        0.00
    symmetrization                          :         0.00
  potential (total, XC, Ha)                 :         0.06        0.04        0.02
  density matrix setup                      :         0.00

+-------------------------+
| Iteration number :    4 |
+-------------------------+

Energies :
 Fermi                       :     0.206254394612    
 sum of eigenvalues          :     -315.737644159    
 electron kinetic            :      579.205912727    
   core kinetic              :      568.846833996    
   valence kinetic           :      10.3590787316    
 Coulomb                     :     -1117.46977995    
 Coulomb potential           :     -842.526352899    
 nuclear-nuclear             :     -89.1568053812    
 electron-nuclear            :     -1214.09959625    
 Hartree                     :      185.786621674    
 Madelung                    :     -696.206603505    
 xc potential                :     -52.4172039875    
 exchange                    :     -37.5307136395    
 correlation                 :     -2.14467462856    
 total energy                :     -577.939255495    

Density of states at Fermi energy :   0.1338194560E-08
 (states/Hartree/unit cell)
Estimated band gap (eV) :    2.653443804    

Charges :
 core                        :    20.00000000    
 core leakage                :   0.7626341248E-02
 valence                     :    8.000000000    
 interstitial                :    4.449915881    
 muffin-tins
  species :    1 (Si)
   atom    1                 :    11.77504206    
   atom    2                 :    11.77504206    
 total in muffin-tins        :    23.55008412    
 total charge                :    28.00000000    

Wrote STATE.OUT

RMS change in effective potential (target) :   0.5342930685E-01 (  0.1000000000E-05)
Absolute change in total energy (target)   :   0.6122944584     (  0.1000000000E-03)

Time (CPU seconds) :         1.14

iteration time (seconds)                    :         0.42
  radial setup (linen, APW, radint)         :         0.00        0.00        0.11
  total for secular equation                :         0.15
    first-variational                       :         0.14
      setup                                 :         0.06
        setup H (total, MT, IT)             :         0.04        0.04        0.00
        setup O (total, MT, IT)             :         0.02        0.02        0.00
      diagonalization                       :         0.08
    second-variational                      :         0.00
      setup (total, MT, IT)                 :         0.00        0.00        0.00
      diagonalization                       :         0.00
  total for charge and magnetization        :         0.07
    k-point summation (total, MT, IT)       :         0.00        0.00        0.00
    symmetrization                          :         0.00
  potential (total, XC, Ha)                 :         0.06        0.04        0.02
  density matrix setup                      :         0.00

+-------------------------+
| Iteration number :    5 |
+-------------------------+

Energies :
 Fermi                       :     0.195460929291    
 sum of eigenvalues          :     -316.830395179    
 electron kinetic            :      578.234651789    
   core kinetic              :      568.183410719    
   valence kinetic           :      10.0512410704    
 Coulomb                     :     -1118.18167537    
 Coulomb potential           :     -842.565582982    
 nuclear-nuclear             :     -89.1568053812    
 electron-nuclear            :     -1215.48415700    
 Hartree                     :      186.459287007    
 Madelung                    :     -696.898883879    
 xc potential                :     -52.4994639864    
 exchange                    :     -37.5907298201    
 correlation                 :     -2.14680157604    
 total energy                :     -579.684554977    

Density of states at Fermi energy :   0.4191580691E-10
 (states/Hartree/unit cell)
Estimated band gap (eV) :    2.840175599    

Charges :
 core                        :    20.00000000    
 core leakage                :   0.7369666712E-02
 valence                     :    8.000000000    
 interstitial                :    4.371922238    
 muffin-tins
  species :    1 (Si)
   atom    1                 :    11.81403888    
   atom    2                 :    11.81403888    
 total in muffin-tins        :    23.62807776    
 total charge                :    28.00000000    

RMS change in effective potential (target) :   0.3863819796E-01 (  0.1000000000E-05)
Absolute change in total energy (target)   :    1.745299482     (  0.1000000000E-03)

Time (CPU seconds) :         1.39

iteration time (seconds)                    :         0.42
  radial setup (linen, APW, radint)         :         0.00        0.00        0.11
  total for secular equation                :         0.16
    first-variational                       :         0.14
      setup                                 :         0.06
        setup H (total, MT, IT)             :         0.04        0.04        0.00
        setup O (total, MT, IT)             :         0.02        0.02        0.00
      diagonalization                       :         0.08
    second-variational                      :         0.00
      setup (total, MT, IT)                 :         0.00        0.00        0.00
      diagonalization                       :         0.00
  total for charge and magnetization        :         0.07
    k-point summation (total, MT, IT)       :         0.00        0.00        0.00
    symmetrization                          :         0.00
  potential (total, XC, Ha)                 :         0.06        0.04        0.02
  density matrix setup                      :         0.00

+-------------------------+
| Iteration number :    6 |
+-------------------------+

Energies :
 Fermi                       :     0.196803327104    
 sum of eigenvalues          :     -316.630387800    
 electron kinetic            :      578.374043487    
   core kinetic              :      567.333869151    
   valence kinetic           :      11.0401743355    
 Coulomb                     :     -1118.00931054    
 Coulomb potential           :     -842.522217653    
 nuclear-nuclear             :     -89.1568053812    
 electron-nuclear            :     -1215.18279266    
 Hartree                     :      186.330287505    
 Madelung                    :     -696.748201713    
 xc potential                :     -52.4822136328    
 exchange                    :     -37.5780891985    
 correlation                 :     -2.14642374714    
 total energy                :     -579.359779999    

Density of states at Fermi energy :   0.6795898800E-10
 (states/Hartree/unit cell)
Estimated band gap (eV) :    2.814861705    

Charges :
 core                        :    20.00000000    
 core leakage                :   0.7425731093E-02
 valence                     :    8.000000000    
 interstitial                :    4.382902432    
 muffin-tins
  species :    1 (Si)
   atom    1                 :    11.80854878    
   atom    2                 :    11.80854878    
 total in muffin-tins        :    23.61709757    
 total charge                :    28.00000000    

Wrote STATE.OUT

RMS change in effective potential (target) :   0.2982499721E-01 (  0.1000000000E-05)
Absolute change in total energy (target)   :   0.3247749784     (  0.1000000000E-03)

Time (CPU seconds) :         1.65

iteration time (seconds)                    :         0.42
  radial setup (linen, APW, radint)         :         0.00        0.00        0.11
  total for secular equation                :         0.16
    first-variational                       :         0.14
      setup                                 :         0.06
        setup H (total, MT, IT)             :         0.04        0.04        0.00
        setup O (total, MT, IT)             :         0.02        0.02        0.00
      diagonalization                       :         0.08
    second-variational                      :         0.00
      setup (total, MT, IT)                 :         0.00        0.00        0.00
      diagonalization                       :         0.00
  total for charge and magnetization        :         0.07
    k-point summation (total, MT, IT)       :         0.00        0.00        0.00
    symmetrization                          :         0.00
  potential (total, XC, Ha)                 :         0.06        0.04        0.02
  density matrix setup                      :         0.00

+-------------------------+
| Iteration number :    7 |
+-------------------------+

Energies :
 Fermi                       :     0.205456068435    
 sum of eigenvalues          :     -315.666050797    
 electron kinetic            :      579.192120599    
   core kinetic              :      567.870004773    
   valence kinetic           :      11.3221158267    
 Coulomb                     :     -1117.33391694    
 Coulomb potential           :     -842.451345748    
 nuclear-nuclear             :     -89.1568053812    
 electron-nuclear            :     -1213.90287738    
 Hartree                     :      185.725765814    
 Madelung                    :     -696.108244069    
 xc potential                :     -52.4068256486    
 exchange                    :     -37.5230297280    
 correlation                 :     -2.14454531551    
 total energy                :     -577.809371387    

Density of states at Fermi energy :   0.1224691233E-08
 (states/Hartree/unit cell)
Estimated band gap (eV) :    2.658385895    

Charges :
 core                        :    20.00000000    
 core leakage                :   0.7666950365E-02
 valence                     :    8.000000000    
 interstitial                :    4.448833673    
 muffin-tins
  species :    1 (Si)
   atom    1                 :    11.77558316    
   atom    2                 :    11.77558316    
 total in muffin-tins        :    23.55116633    
 total charge                :    28.00000000    

RMS change in effective potential (target) :   0.7335580155E-02 (  0.1000000000E-05)
Absolute change in total energy (target)   :    1.550408612     (  0.1000000000E-03)

Time (CPU seconds) :         1.90

iteration time (seconds)                    :         0.43
  radial setup (linen, APW, radint)         :         0.00        0.00        0.11
  total for secular equation                :         0.16
    first-variational                       :         0.14
      setup                                 :         0.06
        setup H (total, MT, IT)             :         0.04        0.04        0.00
        setup O (total, MT, IT)             :         0.02        0.02        0.00
      diagonalization                       :         0.08
    second-variational                      :         0.00
      setup (total, MT, IT)                 :         0.00        0.00        0.00
      diagonalization                       :         0.00
  total for charge and magnetization        :         0.07
    k-point summation (total, MT, IT)       :         0.00        0.00        0.00
    symmetrization                          :         0.00
  potential (total, XC, Ha)                 :         0.06        0.04        0.02
  density matrix setup                      :         0.00

+-------------------------+
| Iteration number :    8 |
+-------------------------+

Energies :
 Fermi                       :     0.203936479356    
 sum of eigenvalues          :     -315.849480986    
 electron kinetic            :      579.044790620    
   core kinetic              :      567.810767879    
   valence kinetic           :      11.2340227411    
 Coulomb                     :     -1117.47116750    
 Coulomb potential           :     -842.472711786    
 nuclear-nuclear             :     -89.1568053812    
 electron-nuclear            :     -1214.15601245    
 Hartree                     :      185.841650330    
 Madelung                    :     -696.234811604    
 xc potential                :     -52.4215598202    
 exchange                    :     -37.5338032465    
 correlation                 :     -2.14489700159    
 total energy                :     -578.105077125    

Density of states at Fermi energy :   0.7484693808E-09
 (states/Hartree/unit cell)
Estimated band gap (eV) :    2.685676911    

Charges :
 core                        :    20.00000000    
 core leakage                :   0.7618246820E-02
 valence                     :    8.000000000    
 interstitial                :    4.437047690    
 muffin-tins
  species :    1 (Si)
   atom    1                 :    11.78147616    
   atom    2                 :    11.78147616    
 total in muffin-tins        :    23.56295231    
 total charge                :    28.00000000    

Wrote STATE.OUT

RMS change in effective potential (target) :   0.1521763559E-04 (  0.1000000000E-05)
Absolute change in total energy (target)   :   0.2957057379     (  0.1000000000E-03)

Time (CPU seconds) :         2.16

iteration time (seconds)                    :         0.42
  radial setup (linen, APW, radint)         :         0.00        0.00        0.11
  total for secular equation                :         0.16
    first-variational                       :         0.14
      setup                                 :         0.06
        setup H (total, MT, IT)             :         0.04        0.04        0.00
        setup O (total, MT, IT)             :         0.02        0.02        0.00
      diagonalization                       :         0.08
    second-variational                      :         0.00
      setup (total, MT, IT)                 :         0.00        0.00        0.00
      diagonalization                       :         0.00
  total for charge and magnetization        :         0.07
    k-point summation (total, MT, IT)       :         0.00        0.00        0.00
    symmetrization                          :         0.00
  potential (total, XC, Ha)                 :         0.06        0.04        0.02
  density matrix setup                      :         0.00

+-------------------------+
| Iteration number :    9 |
+-------------------------+

Energies :
 Fermi                       :     0.203936010194    
 sum of eigenvalues          :     -315.849131979    
 electron kinetic            :      579.045064615    
   core kinetic              :      567.810891353    
   valence kinetic           :      11.2341732618    
 Coulomb                     :     -1117.47076763    
 Coulomb potential           :     -842.472682793    
 nuclear-nuclear             :     -89.1568053812    
 electron-nuclear            :     -1214.15524171    
 Hartree                     :      185.841279460    
 Madelung                    :     -696.234426238    
 xc potential                :     -52.4215138015    
 exchange                    :     -37.5337696690    
 correlation                 :     -2.14489581547    
 total energy                :     -578.104368503    

Density of states at Fermi energy :   0.7500265530E-09
 (states/Hartree/unit cell)
Estimated band gap (eV) :    2.685562306    

Charges :
 core                        :    20.00000000    
 core leakage                :   0.7618366400E-02
 valence                     :    8.000000000    
 interstitial                :    4.437087846    
 muffin-tins
  species :    1 (Si)
   atom    1                 :    11.78145608    
   atom    2                 :    11.78145608    
 total in muffin-tins        :    23.56291215    
 total charge                :    28.00000000    

RMS change in effective potential (target) :   0.3462733458E-05 (  0.1000000000E-05)
Absolute change in total energy (target)   :   0.7086216007E-03 (  0.1000000000E-03)

Time (CPU seconds) :         2.41

iteration time (seconds)                    :         0.42
  radial setup (linen, APW, radint)         :         0.00        0.00        0.11
  total for secular equation                :         0.16
    first-variational                       :         0.14
      setup                                 :         0.06
        setup H (total, MT, IT)             :         0.04        0.04        0.00
        setup O (total, MT, IT)             :         0.02        0.02        0.00
      diagonalization                       :         0.08
    second-variational                      :         0.00
      setup (total, MT, IT)                 :         0.00        0.00        0.00
      diagonalization                       :         0.00
  total for charge and magnetization        :         0.07
    k-point summation (total, MT, IT)       :         0.00        0.00        0.00
    symmetrization                          :         0.00
  potential (total, XC, Ha)                 :         0.06        0.04        0.02
  density matrix setup                      :         0.00

+-------------------------+
| Iteration number :   10 |
+-------------------------+

Energies :
 Fermi                       :     0.203935051311    
 sum of eigenvalues          :     -315.849221538    
 electron kinetic            :      579.044992859    
   core kinetic              :      567.810860888    
   valence kinetic           :      11.2341319709    
 Coulomb                     :     -1117.47083441    
 Coulomb potential           :     -842.472693465    
 nuclear-nuclear             :     -89.1568053812    
 electron-nuclear            :     -1214.15536459    
 Hartree                     :      185.841335561    
 Madelung                    :     -696.234487675    
 xc potential                :     -52.4215209313    
 exchange                    :     -37.5337748828    
 correlation                 :     -2.14489598492    
 total energy                :     -578.104512417    

Density of states at Fermi energy :   0.7498529555E-09
 (states/Hartree/unit cell)
Estimated band gap (eV) :    2.685575071    

Charges :
 core                        :    20.00000000    
 core leakage                :   0.7618343939E-02
 valence                     :    8.000000000    
 interstitial                :    4.437082053    
 muffin-tins
  species :    1 (Si)
   atom    1                 :    11.78145897    
   atom    2                 :    11.78145897    
 total in muffin-tins        :    23.56291795    
 total charge                :    28.00000000    

Wrote STATE.OUT

RMS change in effective potential (target) :   0.9795842255E-07 (  0.1000000000E-05)
Absolute change in total energy (target)   :   0.1439133619E-03 (  0.1000000000E-03)

Time (CPU seconds) :         2.66

iteration time (seconds)                    :         0.42
  radial setup (linen, APW, radint)         :         0.00        0.00        0.11
  total for secular equation                :         0.15
    first-variational                       :         0.15
      setup                                 :         0.06
        setup H (total, MT, IT)             :         0.04        0.04        0.00
        setup O (total, MT, IT)             :         0.02        0.02        0.00
      diagonalization                       :         0.08
    second-variational                      :         0.00
      setup (total, MT, IT)                 :         0.00        0.00        0.00
      diagonalization                       :         0.00
  total for charge and magnetization        :         0.07
    k-point summation (total, MT, IT)       :         0.00        0.00        0.00
    symmetrization                          :         0.00
  potential (total, XC, Ha)                 :         0.06        0.04        0.02
  density matrix setup                      :         0.00

+-------------------------+
| Iteration number :   11 |
+-------------------------+

Energies :
 Fermi                       :     0.203935081532    
 sum of eigenvalues          :     -315.849219232    
 electron kinetic            :      579.044994600    
   core kinetic              :      567.810861573    
   valence kinetic           :      11.2341330271    
 Coulomb                     :     -1117.47083265    
 Coulomb potential           :     -842.472693086    
 nuclear-nuclear             :     -89.1568053812    
 electron-nuclear            :     -1214.15536146    
 Hartree                     :      185.841334186    
 Madelung                    :     -696.234486111    
 xc potential                :     -52.4215207456    
 exchange                    :     -37.5337747472    
 correlation                 :     -2.14489598036    
 total energy                :     -578.104508781    

Density of states at Fermi energy :   0.7498583136E-09
 (states/Hartree/unit cell)
Estimated band gap (eV) :    2.685574677    

Charges :
 core                        :    20.00000000    
 core leakage                :   0.7618344425E-02
 valence                     :    8.000000000    
 interstitial                :    4.437082209    
 muffin-tins
  species :    1 (Si)
   atom    1                 :    11.78145890    
   atom    2                 :    11.78145890    
 total in muffin-tins        :    23.56291779    
 total charge                :    28.00000000    

RMS change in effective potential (target) :   0.4610333595E-06 (  0.1000000000E-05)
Absolute change in total energy (target)   :   0.3635464509E-05 (  0.1000000000E-03)

Convergence targets achieved

Time (CPU seconds) :         2.91

iteration time (seconds)                    :         0.42
  radial setup (linen, APW, radint)         :         0.00        0.00        0.11
  total for secular equation                :         0.16
    first-variational                       :         0.14
      setup                                 :         0.06
        setup H (total, MT, IT)             :         0.04        0.04        0.00
        setup O (total, MT, IT)             :         0.02        0.02        0.00
      diagonalization                       :         0.08
    second-variational                      :         0.00
      setup (total, MT, IT)                 :         0.00        0.00        0.00
      diagonalization                       :         0.00
  total for charge and magnetization        :         0.07
    k-point summation (total, MT, IT)       :         0.00        0.00        0.00
    symmetrization                          :         0.00
  potential (total, XC, Ha)                 :         0.06        0.04        0.02
  density matrix setup                      :         0.00

+-------------------------+
| Iteration number :   12 |
+-------------------------+

Energies :
 Fermi                       :     0.203935082213    
 sum of eigenvalues          :     -315.849219157    
 electron kinetic            :      579.044994846    
   core kinetic              :      567.810860278    
   valence kinetic           :      11.2341345683    
 Coulomb                     :     -1117.47083269    
 Coulomb potential           :     -842.472693264    
 nuclear-nuclear             :     -89.1568053812    
 electron-nuclear            :     -1214.15536135    
 Hartree                     :      185.841334045    
 Madelung                    :     -696.234486058    
 xc potential                :     -52.4215207396    
 exchange                    :     -37.5337747428    
 correlation                 :     -2.14489598021    
 total energy                :     -578.104508567    

Density of states at Fermi energy :   0.7498584646E-09
 (states/Hartree/unit cell)
Estimated band gap (eV) :    2.685574666    

Charges :
 core                        :    20.00000000    
 core leakage                :   0.7618344567E-02
 valence                     :    8.000000000    
 interstitial                :    4.437082214    
 muffin-tins
  species :    1 (Si)
   atom    1                 :    11.78145889    
   atom    2                 :    11.78145889    
 total in muffin-tins        :    23.56291779    
 total charge                :    28.00000000    

Wrote STATE.OUT

+------------------------------+
| Self-consistent loop stopped |
+------------------------------+

Wrote STATE.OUT

Timings (CPU seconds) :
 initialisation                        :         0.07
 Hamiltonian and overlap matrix set up :         0.74
 first-variational secular equation    :         0.99
 charge density calculation            :         0.58
 potential calculation                 :         0.78
 total                                 :         3.16

+-----------------------------+
| Elk version 1.0.017 stopped |
+-----------------------------+
